<?xml version="1.0"?>
<VTKFile type="PolyData" version="0.1" byte_order="LittleEndian">
<PolyData>
<Piece NumberOfPoints="22016" NumberOfVerts="22016" NumberOfLines="0" NumberOfStrips="0" NumberOfPolys="0">
<Points>
  <DataArray type="Float32" Name="Points" NumberOfComponents="3" format="ascii">-5.532165e-01 -2.964932e-01 -1.949510e-01 -5.523158e-01 -2.964932e-01 -1.949510e-01 -5.511407e-01 -2.964932e-01 -1.949510e-01 -5.502400e-01 -2.964932e-01 -1.949510e-01 -5.649621e-01 -2.904747e-01 -1.949510e-01 -5.607724e-01 -2.904747e-01 -1.949510e-01 -5.553060e-01 -2.904747e-01 -1.949510e-01 -5.511164e-01 -2.904747e-01 -1.949510e-01 -5.795557e-01 -2.826222e-01 -1.949510e-01 -5.712795e-01 -2.826222e-01 -1.949510e-01 -5.604814e-01 -2.826222e-01 -1.949510e-01 -5.522052e-01 -2.826222e-01 -1.949510e-01 -5.902181e-01 -2.766037e-01 -1.949510e-01 -5.789562e-01 -2.766037e-01 -1.949510e-01 -5.642626e-01 -2.766037e-01 -1.949510e-01 -5.530008e-01 -2.766037e-01 -1.949510e-01 -5.641925e-01 -3.546760e-01 -1.403608e-01 -5.602183e-01 -3.546760e-01 -1.403608e-01 -5.550331e-01 -3.546760e-01 -1.403608e-01 -5.510589e-01 -3.546760e-01 -1.403608e-01 -6.124492e-01 -3.323651e-01 -1.403608e-01 -5.949622e-01 -3.323651e-01 -1.403608e-01 -5.721465e-01 -3.323651e-01 -1.403608e-01 -5.546595e-01 -3.323651e-01 -1.403608e-01 -6.657752e-01 -3.032557e-01 -1.403608e-01 -6.333558e-01 -3.032557e-01 -1.403608e-01 -5.910576e-01 -3.032557e-01 -1.403608e-01 -5.586383e-01 -3.032557e-01 -1.403608e-01 -7.007687e-01 -2.809448e-01 -1.403608e-01 -6.585505e-01 -2.809448e-01 -1.403608e-01 -6.034675e-01 -2.809448e-01 -1.403608e-01 -5.612492e-01 -2.809448e-01 -1.403608e-01 -5.737883e-01 -3.955089e-01 -6.913591e-02 -5.671271e-01 -3.955089e-01 -6.913591e-02 -5.584361e-01 -3.955089e-01 -6.913591e-02 -5.517749e-01 -3.955089e-01 -6.913591e-02 -6.508727e-01 -3.617640e-01 -6.913591e-02 -6.226263e-01 -3.617640e-01 -6.913591e-02 -5.857727e-01 -3.617640e-01 -6.913591e-02 -5.575263e-01 -3.617640e-01 -6.913591e-02 -7.302929e-01 -3.177363e-01 -6.913591e-02 -6.798073e-01 -3.177363e-01 -6.913591e-02 -6.139377e-01 -3.177363e-01 -6.913591e-02 -5.634521e-01 -3.177363e-01 -6.913591e-02 -7.793647e-01 -2.839914e-01 -6.913591e-02 -7.151380e-01 -2.839914e-01 -6.913591e-02 -6.313401e-01 -2.839914e-01 -6.913591e-02 -5.671134e-01 -2.839914e-01 -6.913591e-02 -5.767972e-01 -4.071518e-01 -1.454575e-02 -5.692935e-01 -4.071518e-01 -1.454575e-02 -5.595032e-01 -4.071518e-01 -1.454575e-02 -5.519994e-01 -4.071518e-01 -1.454575e-02 -6.624744e-01 -3.701466e-01 -1.454575e-02 -6.309793e-01 -3.701466e-01 -1.454575e-02 -5.898870e-01 -3.701466e-01 -1.454575e-02 -5.583920e-01 -3.701466e-01 -1.454575e-02 -7.491481e-01 -3.218653e-01 -1.454575e-02 -6.933827e-01 -3.218653e-01 -1.454575e-02 -6.206244e-01 -3.218653e-01 -1.454575e-02 -5.648589e-01 -3.218653e-01 -1.454575e-02 -8.018856e-01 -2.848602e-01 -1.454575e-02 -7.313526e-01 -2.848602e-01 -1.454575e-02 -6.393267e-01 -2.848602e-01 -1.454575e-02 -5.687938e-01 -2.848602e-01 -1.454575e-02 -5.501329e-01 -6.044217e-02 -2.754249e-01 -5.500957e-01 -6.044217e-02 -2.754249e-01 -5.500471e-01 -6.044217e-02 -2.754249e-01 -5.500099e-01 -6.044217e-02 -2.754249e-01 -5.506315e-01 -6.044217e-02 -2.753059e-01 -5.504546e-01 -6.044217e-02 -2.753059e-01 -5.502239e-01 -6.044217e-02 -2.753059e-01 -5.500471e-01 -6.044217e-02 -2.753059e-01 -5.512808e-01 -6.044217e-02 -2.751507e-01 -5.509222e-01 -6.044217e-02 -2.751507e-01 -5.504542e-01 -6.044217e-02 -2.751507e-01 -5.500956e-01 -6.044217e-02 -2.751507e-01 -5.517777e-01 -6.044217e-02 -2.750317e-01 -5.512799e-01 -6.044217e-02 -2.750317e-01 -5.506304e-01 -6.044217e-02 -2.750317e-01 -5.501326e-01 -6.044217e-02 -2.750317e-01 -5.505477e-01 -4.351716e-02 -2.767424e-01 -5.503943e-01 -4.351716e-02 -2.767424e-01 -5.501942e-01 -4.351716e-02 -2.767424e-01 -5.500409e-01 -4.351716e-02 -2.767424e-01 -5.525957e-01 -4.351716e-02 -2.762545e-01 -5.518688e-01 -4.351716e-02 -2.762545e-01 -5.509205e-01 -4.351716e-02 -2.762545e-01 -5.501937e-01 -4.351716e-02 -2.762545e-01 -5.552502e-01 -4.351716e-02 -2.756179e-01 -5.537800e-01 -4.351716e-02 -2.756179e-01 -5.518619e-01 -4.351716e-02 -2.756179e-01 -5.503917e-01 -4.351716e-02 -2.756179e-01 -5.572714e-01 -4.351716e-02 -2.751300e-01 -5.552352e-01 -4.351716e-02 -2.751300e-01 -5.525787e-01 -4.351716e-02 -2.751300e-01 -5.505425e-01 -4.351716e-02 -2.751300e-01 -5.508870e-01 -2.143474e-02 -2.778115e-01 -5.506386e-01 -2.143474e-02 -2.778115e-01 -5.503145e-01 -2.143474e-02 -2.778115e-01 -5.500662e-01 -2.143474e-02 -2.778115e-01 -5.541962e-01 -2.143474e-02 -2.770242e-01 -5.530212e-01 -2.143474e-02 -2.770242e-01 -5.514881e-01 -2.143474e-02 -2.770242e-01 -5.503131e-01 -2.143474e-02 -2.770242e-01 -5.584683e-01 -2.143474e-02 -2.759970e-01 -5.560970e-01 -2.143474e-02 -2.759970e-01 -5.530031e-01 -2.143474e-02 -2.759970e-01 -5.506318e-01 -2.143474e-02 -2.759970e-01 -5.617084e-01 -2.143474e-02 -2.752098e-01 -5.584298e-01 -2.143474e-02 -2.752098e-01 -5.541522e-01 -2.143474e-02 -2.752098e-01 -5.508736e-01 -2.143474e-02 -2.752098e-01 -5.509910e-01 -4.509731e-03 -2.781379e-01 -5.507135e-01 -4.509731e-03 -2.781379e-01 -5.503515e-01 -4.509731e-03 -2.781379e-01 -5.500739e-01 -4.509731e-03 -2.781379e-01 -5.546861e-01 -4.509731e-03 -2.772592e-01 -5.533739e-01 -4.509731e-03 -2.772592e-01 -5.516618e-01 -4.509731e-03 -2.772592e-01 -5.503496e-01 -4.509731e-03 -2.772592e-01 -5.594504e-01 -4.509731e-03 -2.761128e-01 -5.568041e-01 -4.509731e-03 -2.761128e-01 -5.533514e-01 -4.509731e-03 -2.761128e-01 -5.507051e-01 -4.509731e-03 -2.761128e-01 -5.630595e-01 -4.509731e-03 -2.752341e-01 -5.594026e-01 -4.509731e-03 -2.752341e-01 -5.546313e-01 -4.509731e-03 -2.752341e-01 -5.509744e-01 -4.509731e-03 -2.752341e-01 -5.510706e-01 -1.514650e-01 -2.591582e-01 -5.507708e-01 -1.514650e-01 -2.591582e-01 -5.503797e-01 -1.514650e-01 -2.591582e-01 -5.500799e-01 -1.514650e-01 -2.591582e-01 -5.550041e-01 -1.475545e-01 -2.591582e-01 -5.536029e-01 -1.475545e-01 -2.591582e-01 -5.517746e-01 -1.475545e-01 -2.591582e-01 -5.503734e-01 -1.475545e-01 -2.591582e-01 -5.599390e-01 -1.424524e-01 -2.591582e-01 -5.571559e-01 -1.424524e-01 -2.591582e-01 -5.535247e-01 -1.424524e-01 -2.591582e-01 -5.507416e-01 -1.424524e-01 -2.591582e-01 -5.635738e-01 -1.385420e-01 -2.591582e-01 -5.597728e-01 -1.385420e-01 -2.591582e-01 -5.548137e-01 -1.385420e-01 -2.591582e-01 -5.510128e-01 -1.385420e-01 -2.591582e-01 -5.554905e-01 -1.934155e-01 -2.452520e-01 -5.539531e-01 -1.934155e-01 -2.452520e-01 -5.519471e-01 -1.934155e-01 -2.452520e-01 -5.504097e-01 -1.934155e-01 -2.452520e-01 -5.745949e-01 -1.777580e-01 -2.452520e-01 -5.677079e-01 -1.777580e-01 -2.452520e-01 -5.587222e-01 -1.777580e-01 -2.452520e-01 -5.518351e-01 -1.777580e-01 -2.452520e-01 -5.962593e-01 -1.573294e-01 -2.452520e-01 -5.833058e-01 -1.573294e-01 -2.452520e-01 -5.664050e-01 -1.573294e-01 -2.452520e-01 -5.534515e-01 -1.573294e-01 -2.452520e-01 -6.106038e-01 -1.416720e-01 -2.452520e-01 -5.936335e-01 -1.416720e-01 -2.452520e-01 -5.714920e-01 -1.416720e-01 -2.452520e-01 -5.545218e-01 -1.416720e-01 -2.452520e-01 -5.614970e-01 -2.342827e-01 -2.271083e-01 -5.582776e-01 -2.342827e-01 -2.271083e-01 -5.540772e-01 -2.342827e-01 -2.271083e-01 -5.508578e-01 -2.342827e-01 -2.271083e-01 -5.996985e-01 -2.071816e-01 -2.271083e-01 -5.857820e-01 -2.071816e-01 -2.271083e-01 -5.676247e-01 -2.071816e-01 -2.271083e-01 -5.537081e-01 -2.071816e-01 -2.271083e-01 -6.396146e-01 -1.718223e-01 -2.271083e-01 -6.145207e-01 -1.718223e-01 -2.271083e-01 -5.817802e-01 -1.718223e-01 -2.271083e-01 -5.566864e-01 -1.718223e-01 -2.271083e-01 -6.638308e-01 -1.447212e-01 -2.271083e-01 -6.319559e-01 -1.447212e-01 -2.271083e-01 -5.903681e-01 -1.447212e-01 -2.271083e-01 -5.584932e-01 -1.447212e-01 -2.271083e-01 -5.660009e-01 -2.594195e-01 -2.132021e-01 -5.615203e-01 -2.594195e-01 -2.132021e-01 -5.556744e-01 -2.594195e-01 -2.132021e-01 -5.511939e-01 -2.594195e-01 -2.132021e-01 -6.177605e-01 -2.252796e-01 -2.132021e-01 -5.987862e-01 -2.252796e-01 -2.132021e-01 -5.740301e-01 -2.252796e-01 -2.132021e-01 -5.550558e-01 -2.252796e-01 -2.132021e-01 -6.694948e-01 -1.807366e-01 -2.132021e-01 -6.360339e-01 -1.807366e-01 -2.132021e-01 -5.923767e-01 -1.807366e-01 -2.132021e-01 -5.589158e-01 -1.807366e-01 -2.132021e-01 -6.994421e-01 -1.465967e-01 -2.132021e-01 -6.575953e-01 -1.465967e-01 -2.132021e-01 -6.029970e-01 -1.465967e-01 -2.132021e-01 -5.611502e-01 -1.465967e-01 -2.132021e-01 -6.088660e-01 -2.654531e-01 -1.949510e-01 -5.923823e-01 -2.654531e-01 -1.949510e-01 -5.708758e-01 -2.654531e-01 -1.949510e-01 -5.543921e-01 -2.654531e-01 -1.949510e-01 -6.603743e-01 -2.296237e-01 -1.949510e-01 -6.294673e-01 -2.296237e-01 -1.949510e-01 -5.891423e-01 -2.296237e-01 -1.949510e-01 -5.582353e-01 -2.296237e-01 -1.949510e-01 -7.119163e-01 -1.828763e-01 -1.949510e-01 -6.665765e-01 -1.828763e-01 -1.949510e-01 -6.074207e-01 -1.828763e-01 -1.949510e-01 -5.620809e-01 -1.828763e-01 -1.949510e-01 -7.416477e-01 -1.470469e-01 -1.949510e-01 -6.879825e-01 -1.470469e-01 -1.949510e-01 -6.179644e-01 -1.470469e-01 -1.949510e-01 -5.642993e-01 -1.470469e-01 -1.949510e-01 -7.225368e-01 -2.654531e-01 -1.403608e-01 -6.742230e-01 -2.654531e-01 -1.403608e-01 -6.111871e-01 -2.654531e-01 -1.403608e-01 -5.628734e-01 -2.654531e-01 -1.403608e-01 -7.660449e-01 -2.296237e-01 -1.403608e-01 -7.055480e-01 -2.296237e-01 -1.403608e-01 -6.266165e-01 -2.296237e-01 -1.403608e-01 -5.661196e-01 -2.296237e-01 -1.403608e-01 -8.105672e-01 -1.828763e-01 -1.403608e-01 -7.376032e-01 -1.828763e-01 -1.403608e-01 -6.424055e-01 -1.828763e-01 -1.403608e-01 -5.694415e-01 -1.828763e-01 -1.403608e-01 -8.366336e-01 -1.470469e-01 -1.403608e-01 -7.563705e-01 -1.470469e-01 -1.403608e-01 -6.516495e-01 -1.470469e-01 -1.403608e-01 -5.713864e-01 -1.470469e-01 -1.403608e-01 -8.027956e-01 -2.654531e-01 -6.913591e-02 -7.320078e-01 -2.654531e-01 -6.913591e-02 -6.396495e-01 -2.654531e-01 -6.913591e-02 -5.688617e-01 -2.654531e-01 -6.913591e-02 -8.419710e-01 -2.296237e-01 -6.913591e-02 -7.602133e-01 -2.296237e-01 -6.913591e-02 -6.535423e-01 -2.296237e-01 -6.913591e-02 -5
[...]
<PointData Scalars="w">
  <DataArray type="Float32" Name="w" NumberOfComponents="1" format="ascii">8.799712e-08 1.649737e-07 1.649737e-07 8.799712e-08 7.674047e-07 1.438701e-06 1.438701e-06 7.674047e-07 1.515910e-06 2.841972e-06 2.841972e-06 1.515910e-06 1.100291e-06 2.062785e-06 2.062785e-06 1.100291e-06 2.698477e-06 5.059003e-06 5.059003e-06 2.698477e-06 2.226036e-05 4.173289e-05 4.173289e-05 2.226036e-05 4.126868e-05 7.736897e-05 7.736897e-05 4.126868e-05 2.866621e-05 5.374233e-05 5.374233e-05 2.866621e-05 6.840899e-06 1.282506e-05 1.282506e-05 6.840899e-06 5.438388e-05 1.019569e-04 1.019569e-04 5.438388e-05 9.720197e-05 1.822306e-04 1.822306e-04 9.720197e-05 6.595944e-05 1.236583e-04 1.236583e-04 6.595944e-05 4.507623e-06 8.450722e-06 8.450722e-06 4.507623e-06 3.546973e-05 6.649731e-05 6.649731e-05 3.546973e-05 6.280303e-05 1.177407e-04 1.177407e-04 6.280303e-05 4.237029e-05 7.943422e-05 7.943422e-05 4.237029e-05 2.229207e-11 4.179234e-11 4.179234e-11 2.229207e-11 1.984994e-10 3.721391e-10 3.721391e-10 1.984994e-10 4.026278e-10 7.548314e-10 7.548314e-10 4.026278e-10 2.980799e-10 5.588289e-10 5.588289e-10 2.980799e-10 7.060448e-10 1.323666e-09 1.323666e-09 7.060448e-10 6.273294e-09 1.176094e-08 1.176094e-08 6.273294e-09 1.268866e-08 2.378823e-08 2.378823e-08 1.268866e-08 9.373746e-09 1.757355e-08 1.757355e-08 9.373746e-09 1.844949e-09 3.458842e-09 3.458842e-09 1.844949e-09 1.636373e-08 3.067810e-08 3.067810e-08 1.636373e-08 3.302317e-08 6.191059e-08 6.191059e-08 3.302317e-08 2.435416e-08 4.565827e-08 4.565827e-08 2.435416e-08 1.227236e-09 2.300775e-09 2.300775e-09 1.227236e-09 1.087908e-08 2.039570e-08 2.039570e-08 1.087908e-08 2.193967e-08 4.113166e-08 4.113166e-08 2.193967e-08 1.617186e-08 3.031840e-08 3.031840e-08 1.617186e-08 4.848023e-09 9.088891e-09 9.088891e-09 4.848023e-09 4.248068e-08 7.964117e-08 7.964117e-08 4.248068e-08 8.437371e-08 1.581806e-07 1.581806e-07 8.437371e-08 6.146382e-08 1.152301e-07 1.152301e-07 6.146382e-08 1.866259e-07 3.498792e-07 3.498792e-07 1.866259e-07 1.567288e-06 2.938292e-06 2.938292e-06 1.567288e-06 2.947827e-06 5.526475e-06 5.526475e-06 2.947827e-06 2.059949e-06 3.861915e-06 3.861915e-06 2.059949e-06 6.764061e-07 1.268101e-06 1.268101e-06 6.764061e-07 5.481661e-06 1.027681e-05 1.027681e-05 5.481661e-06 9.884331e-06 1.853077e-05 1.853077e-05 9.884331e-06 6.697030e-06 1.255534e-05 1.255534e-05 6.697030e-06 6.325512e-07 1.185883e-06 1.185883e-06 6.325512e-07 5.021979e-06 9.415016e-06 9.415016e-06 5.021979e-06 8.856190e-06 1.660325e-05 1.660325e-05 8.856190e-06 5.907784e-06 1.107569e-05 1.107569e-05 5.907784e-06 9.587390e-06 1.797408e-05 1.797408e-05 9.587390e-06 3.370157e-05 6.318244e-05 6.318244e-05 3.370157e-05 4.943934e-05 9.268702e-05 9.268702e-05 4.943934e-05 3.121329e-05 5.851750e-05 5.851750e-05 3.121329e-05 5.268220e-05 9.876660e-05 9.876660e-05 5.268220e-05 1.236723e-04 2.318562e-04 2.318562e-04 1.236723e-04 1.491586e-04 2.796369e-04 2.796369e-04 1.491586e-04 8.752041e-05 1.640800e-04 1.640800e-04 8.752041e-05 7.718833e-05 1.447098e-04 1.447098e-04 7.718833e-05 1.671353e-04 3.133390e-04 3.133390e-04 1.671353e-04 1.903351e-04 3.568330e-04 3.568330e-04 1.903351e-04 1.088254e-04 2.040218e-04 2.040218e-04 1.088254e-04 4.490814e-05 8.419209e-05 8.419209e-05 4.490814e-05 9.582178e-05 1.796431e-04 1.796431e-04 9.582178e-05 1.078842e-04 2.022573e-04 2.022573e-04 1.078842e-04 6.134838e-05 1.150136e-04 1.150136e-04 6.134838e-05 1.744710e-06 3.270916e-06 3.270916e-06 1.744710e-06 1.326966e-05 2.487747e-05 2.487747e-05 1.326966e-05 2.266928e-05 4.249952e-05 4.249952e-05 2.266928e-05 1.490313e-05 2.793982e-05 2.793982e-05 1.490313e-05 3.520221e-06 6.599577e-06 6.599577e-06 3.520221e-06 2.665781e-05 4.997707e-05 4.997707e-05 2.665781e-05 4.537544e-05 8.506816e-05 8.506816e-05 4.537544e-05 2.976450e-05 5.580136e-05 5.580136e-05 2.976450e-05 3.796365e-06 7.117282e-06 7.117282e-06 3.796365e-06 2.861832e-05 5.365254e-05 5.365254e-05 2.861832e-05 4.852906e-05 9.098045e-05 9.098045e-05 4.852906e-05 3.176060e-05 5.954357e-05 5.954357e-05 3.176060e-05 2.115803e-06 3.966628e-06 3.966628e-06 2.115803e-06 1.590676e-05 2.982139e-05 2.982139e-05 1.590676e-05 2.691423e-05 5.045779e-05 5.045779e-05 2.691423e-05 1.759107e-05 3.297908e-05 3.297908e-05 1.759107e-05 2.002694e-06 3.754575e-06 3.754575e-06 2.002694e-06 1.451196e-05 2.720648e-05 2.720648e-05 1.451196e-05 2.442669e-05 4.579423e-05 4.579423e-05 2.442669e-05 1.594154e-05 2.988661e-05 2.988661e-05 1.594154e-05 4.275088e-06 8.014773e-06 8.014773e-06 4.275088e-06 2.801685e-05 5.252494e-05 5.252494e-05 2.801685e-05 4.649496e-05 8.716700e-05 8.716700e-05 4.649496e-05 3.023444e-05 5.668240e-05 5.668240e-05 3.023444e-05 4.695621e-06 8.803173e-06 8.803173e-06 4.695621e-06 2.867337e-05 5.375575e-05 5.375575e-05 2.867337e-05 4.706353e-05 8.823294e-05 8.823294e-05 4.706353e-05 3.051686e-05 5.721185e-05 5.721185e-05 3.051686e-05 2.572968e-06 4.823703e-06 4.823703e-06 2.572968e-06 1.540123e-05 2.887364e-05 2.887364e-05 1.540123e-05 2.519633e-05 4.723713e-05 4.723713e-05 2.519633e-05 1.632373e-05 3.060311e-05 3.060311e-05 1.632373e-05 3.354488e-05 6.288868e-05 6.288868e-05 3.354488e-05 7.018622e-05 1.315825e-04 1.315825e-04 7.018622e-05 7.591433e-05 1.423213e-04 1.423213e-04 7.591433e-05 4.140876e-05 7.763159e-05 7.763159e-05 4.140876e-05 6.617100e-05 1.240549e-04 1.240549e-04 6.617100e-05 1.374809e-04 2.577439e-04 2.577439e-04 1.374809e-04 1.480336e-04 2.775279e-04 2.775279e-04 1.480336e-04 8.064998e-05 1.511995e-04 1.511995e-04 8.064998e-05 6.880013e-05 1.289839e-04 1.289839e-04 6.880013e-05 1.422121e-04 2.666139e-04 2.666139e-04 1.422121e-04 1.526201e-04 2.861264e-04 2.861264e-04 1.526201e-04 8.307417e-05 1.557443e-04 1.557443e-04 8.307417e-05 3.712311e-05 6.959701e-05 6.959701e-05 3.712311e-05 7.662157e-05 1.436472e-04 1.436472e-04 7.662157e-05 8.215022e-05 1.540121e-04 1.540121e-04 8.215022e-05 4.470435e-05 8.381003e-05 8.381003e-05 4.470435e-05 4.857590e-09 9.106827e-09 9.106827e-09 4.857590e-09 4.250315e-08 7.968331e-08 7.968331e-08 4.250315e-08 8.435029e-08 1.581368e-07 1.581368e-07 8.435029e-08 6.145520e-08 1.152139e-07 1.152139e-07 6.145520e-08 1.908422e-07 3.577837e-07 3.577837e-07 1.908422e-07 1.575161e-06 2.953053e-06 2.953053e-06 1.575161e-06 2.938639e-06 5.509250e-06 5.509250e-06 2.938639e-06 2.057048e-06 3.856477e-06 3.856477e-06 2.057048e-06 7.106726e-07 1.332342e-06 1.332342e-06 7.106726e-07 5.532886e-06 1.037285e-05 1.037285e-05 5.532886e-06 9.817868e-06 1.840617e-05 1.840617e-05 9.817868e-06 6.678081e-06 1.251982e-05 1.251982e-05 6.678081e-06 6.756406e-07 1.266666e-06 1.266666e-06 6.756406e-07 5.078316e-06 9.520636e-06 9.520636e-06 5.078316e-06 8.778182e-06 1.645700e-05 1.645700e-05 8.778182e-06 5.886578e-06 1.103593e-05 1.103593e-05 5.886578e-06 2.782552e-06 5.216623e-06 5.216623e-06 2.782552e-06 2.083183e-05 3.905473e-05 3.905473e-05 2.083183e-05 3.595937e-05 6.741528e-05 6.741528e-05 3.595937e-05 2.411579e-05 4.521138e-05 4.521138e-05 2.411579e-05 7.001113e-06 1.312542e-05 1.312542e-05 7.001113e-06 1.312542e-05 2.460705e-05 2.460705e-05 1.312542e-05 1.312542e-05 2.460705e-05 2.460705e-05 1.312542e-05 7.001113e-06 1.312542e-05 1.312542e-05 7.001113e-06 4.356479e-06 8.167363e-06 8.167363e-06 4.356479e-06 3.290811e-05 6.169488e-05 6.169488e-05 3.290811e-05 5.732570e-05 1.074721e-04 1.074721e-04 5.732570e-05 3.869359e-05 7.254128e-05 7.254128e-05 3.869359e-05 4.865638e-05 9.121915e-05 9.121915e-05 4.865638e-05 9.121915e-05 1.710142e-04 1.710142e-04 9.121915e-05 9.121915e-05 1.710142e-04 1.710142e-04 9.121915e-05 4.865638e-05 9.121915e-05 9.121915e-05 4.865638e-05 3.900487e-06 7.312486e-06 7.312486e-06 3.900487e-06 2.959726e-05 5.548784e-05 5.548784e-05 2.959726e-05 5.179529e-05 9.710386e-05 9.710386e-05 5.179529e-05 3.507268e-05 6.575293e-05 6.575293e-05 3.507268e-05 7.359210e-05 1.379677e-04 1.379677e-04 7.359210e-05 1.379677e-04 2.586567e-04 2.586567e-04 1.379677e-04 1.379677e-04 2.586567e-04 2.586567e-04 1.379677e-04 7.359210e-05 1.379677e-04 1.379677e-04 7.359210e-05 2.020009e-06 3.787037e-06 3.787037e-06 2.020009e-06 1.534480e-05 2.876785e-05 2.876785e-05 1.534480e-05 2.688314e-05 5.039950e-05 5.039950e-05 2.688314e-05 1.821762e-05 3.415371e-05 3.415371e-05 1.821762e-05 4.304661e-05 8.070217e-05 8.070217e-05 4.304661e-05 8.070217e-05 1.512974e-04 1.512974e-04 8.070217e-05 8.070217e-05 1.512974e-04 1.512974e-04 8.070217e-05 4.304661e-05 8.070217e-05 8.070217e-05 4.304661e-05 1.432755e-08 2.686076e-08 2.686076e-08 1.432755e-08 1.248468e-07 2.340581e-07 2.340581e-07 1.248468e-07 2.466201e-07 4.623541e-07 4.623541e-07 2.466201e-07 1.791289e-07 3.358241e-07 3.358241e-07 1.791289e-07 4.827712e-07 9.050813e-07 9.050813e-07 4.827712e-07 3.950319e-06 7.405909e-06 7.405909e-06 3.950319e-06 7.328514e-06 1.373922e-05 1.373922e-05 7.328514e-06 5.120425e-06 9.599581e-06 9.599581e-06 5.120425e-06 1.432238e-06 2.685106e-06 2.685106e-06 1.432238e-06 1.115453e-05 2.091210e-05 2.091210e-05 1.115453e-05 1.989000e-05 3.728903e-05 3.728903e-05 1.989000e-05 1.360141e-05 2.549941e-05 2.549941e-05 1.360141e-05 1.110097e-06 2.081169e-06 2.081169e-06 1.110097e-06 8.461864e-06 1.586398e-05 1.586398e-05 8.461864e-06 1.485819e-05 2.785557e-05 2.785557e-05 1.485819e-05 1.007974e-05 1.889712e-05 1.889712e-05 1.007974e-05 4.212693e-07 7.897797e-07 7.897797e-07 4.212693e-07 3.199085e-06 5.997524e-06 5.997524e-06 3.199085e-06 5.602753e-06 1.050383e-05 1.050383e-05 5.602753e-06 3.795891e-06 7.116394e-06 7.116394e-06 3.795891e-06 4.290924e-08 8.044462e-08 8.044462e-08 4.290924e-08 8.044462e-08 1.508145e-07 1.508145e-07 8.044462e-08 8.044462e-08 1.508145e-07 1.508145e-07 8.044462e-08 4.290924e-08 8.044462e-08 8.044462e-08 4.290924e-08 7.858634e-07 1.473307e-06 1.473307e-06 7.858634e-07 5.968870e-06 1.119021e-05 1.119021e-05 5.968870e-06 1.045557e-05 1.960171e-05 1.960171e-05 1.045557e-05 7.084600e-06 1.328194e-05 1.328194e-05 7.084600e-06 3.298967e-07 6.184779e-07 6.184779e-07 3.298967e-07 6.184779e-07 1.159499e-06 1.159499e-06 6.184779e-07 6.184779e-07 1.159499e-06 1.159499e-06 6.184779e-07 3.298967e-07 6.184779e-07 6.184779e-07 3.298967e-07 7.827134e-07 1.467402e-06 1.467402e-06 7.827134e-07 5.945814e-06 1.114699e-05 1.114699e-05 5.945814e-06 1.041672e-05 1.952887e-05 1.952887e-05 1.041672e-05 7.058998e-06 1.323394e-05 1.323394e-05 7.058998e-06 5.323017e-07 9.979392e-07 9.979392e-07 5.323017e-07 9.979392e-07 1.870899e-06 1.870899e-06 9.979392e-07 9.979392e-07 1.870899e-06 1.870899e-06 9.979392e-07 5.323017e-07 9.979392e-07 9.979392e-07 5.323017e-07 4.169897e-07 7.817566e-07 7.817566e-07 4.169897e-07 3.167766e-06 5.938809e-06 5.938809e-06 3.167766e-06 5.549990e-06 1.040491e-05 1.040491e-05 5.549990e-06 3.761125e-06 7.051215e-06 7.051215e-06 3.761125e-06 3.168941e-07 5.941011e-07 5.941011e-07 3.168941e-07 5.941011e-07 1.113798e-06 1.113798e-06 5.941011e-07 5.941011e-07 1.113798e-06 1.113798e-06 5.941011e-07 3.168941e-07 5.941011e-07 5.941011e-07 3.168941e-07 1.873684e-07 3.512713e-07 3.512713e-07 1.873684e-07 1.384607e-06 2.595810e-06 2.595810e-06 1.384607e-06 2.328209e-06 4.364838e-06 4.364838e-06 2.328209e-06 1.523345e-06 2.855911e-06 2.855911e-06 1.523345e-06 4.116143e-07 7.716790e-07 7.716790e-07 4.116143e-07 3.007762e-06 5.638839e-06 5.638839e-06 3.007762e-06 5.015910e-06 9.403639e-06 9.403639e-06 5.015910e-06 3.266428e-06 6.123777e-06 6.123777e-06 3.266428e-06 4.950038e-07 9.280144e-07 9.280144e-07 4.950038e-07 3.568006e-06 6.689163e-06 6.689163e-06 3.568006e-06 5.892702e-06 1.104742e-05 1.104742e-05 5.892702e-06 3.816355e-06 7.154759e-06 7.154759e-06 3.816355e-06 2.998457e-07 5.621394e-07 5.621394e-07 2.998457e-07 2.140229e-06 4.012421e-06 4.012421e-06 2.140229e-06 3.510939e-06 6.582176e-06 6.582176e-06 3.510939e-06 2.265240e-06 4.246786e-06 4.246786e-06 2.265240e-06 2.024060e-06 3.794631e-06 3.794631e-06 2.024060e-06 9.275173e-06 1.738874e-05 1.738874e-05 9.275173e-06 1.429114e-05 2.679250e-05 2.679250e-05 1.429114e-05 9.121946e-06 1.710148e-05 1.710148e-05 9.121946e-06 1.158777e-06 2.172431e-06 2.172431e-06 1.158777e-06 2.172431e-06 4.072792e-06 4.072792e-06 2.172431e-06 2.172431e-06 4.072792e-06 4.072792e-06 2.172431e-06 1.158777e-06 2.172431e-06 2.172431e-06 1.158777e-06 5.489999e-06 1.029244e-05 1.029244e-05 5.489999e-06 1.398004e-05 2.620925e-05 2.620925e-05 1.398004e-05 1.790899e-05 3.357510e-05 3.357510e-05 1.790899e-05 1.088504e-05 2.040687e-05 2.040687e-05 1.088504e-05 8.698369e-06 1.630737e-05 1.630737e-05 8.698369e-06 1.630737e-05 3.057245e-05 3.057245e-05 1.630737e-05 1.630737e-05 3.057245e-05 3.057245e-05 1.630737e-05 8.698369e-06 1.630737e-05 1.630737e-05 8.698369e-06 3.760209e-06 7.049498e-06 7.049498e-06 3.760209e-06 7.671733e-06 1.438267e-05 1.438267e-05 7.671733e-06 8.421854e-06 1.578897e-05 1.578897e-05 8.421854e-06 4.776317e-06 8.954459e-06 8.954459e-06 4.776317e-06 1.505578e-05 2.822601e-05 2.822601e-05 1.505578e-05 2.822601e-05 5.291706e-05 5.291706e-05 2.822601e-05 2.822601e-05 5.291706e-05 5.291706e-05 2.822601e-05 1.505578e-05 2.822601e-05 2.822601e-05 1.505578e-05 4.787222e-07 8.974904e-07 8.974904e-07 4.787222e-07 9.091890e-07 1.704513e-06 1.704513e-06 9.091890e-07 9.242347e-07 1.732720e-06 1.732720e-06 9.242347e-07 4.990515e-07 9.356029e-07 9.356029e-07 4.990515e-07 1.011655e-05 1.896613e-05 1.896613e-05 1.011655e-05 1.896613e-05 3.555699e-05 3.555699e-05 1.896613e-05 1.896613e-05 3.555699e-05 3.555699e-05 1.896613e-05 1.011655e-05 1.896613e-05 1.896613e-05 1.011655e-05 4.167896e-05 7.813814e-05 7.813814e-05 4.167896e-05 7.813814e-05 1.464904e-04 1.464904e-04 7.813814e-05 7.813814e-05 1.464904e-04 1.464904e-04 7.813814e-05 4.167896e-05 7.813814e-05 7.813814e-05 4.167896e-05 7.813814e-05 1.464904e-04 1.464904e-04 7.813814e-05 1.464904e-04 2.746348e-04 2.746348e-04 1.464904e-04 1.464904e-04 2.746348e-04 2.746348e-04 1.464904e-04 7.813814e-05 1.464904e-04 1.464904e-04 7.813814e-05 7.813814e-05 1.464904e-04 1.464904e-04 7.813814e-05 1.464904e-04 2.746348e-04 2.746348e-04 1.464904e-04 1.464904e-04 2.746348e-04 2.746348e-04 1.464904e-04 7.813814e-05 1.464904e-04 1.464904e-04 7.813814e-05 4.167896e-05 7.813814e-05 7.813814e-05 4.167896e-05 7.813814e-05 1.464904e-04 1.464904e-04 7.813814e-05 7.813814e-05 1.464904e-04 1.464904e-04 7.813814e-05 4.167896e-05 7.813814e-05 7.813814e-05 4.167896e-05 9.561989e-07 1.792646e-06 1.792646e-06 9.561989e-07 1.901092e-06 3.564096e-06 3.564096e-06 1.901092e-06 2.036744e-06 3.818411e-06 3.818411e-06 2.036744e-06 1.139662e-06 2.136596e-06 2.136596e-06 1.139662e-06 1.327975e-05 2.489637e-05 2.489637e-05 1.327975e-05 2.489637e-05 4.667478e-05 4.667478e-05 2.489637e-05 2.489637e-05 4.667478e-05 4.667478e-05 2.489637e-05 1.327975e-05 2.489637e-05 2.489637e-05 1.327975e-05 1.244556e-06 2.333246e-06 2.333246e-06 1.244556e-06 2.416102e-06 4.529616e-06 4.529616e-06 2.416102e-06 2.521379e-06 4.726987e-06 4.726987e-06 2.521379e-06 1.386850e-06 2.600014e-06 2.600014e-06 1.386850e-06 2.566113e-05 4.810852e-05 4.810852e-05 2.566113e-05 4.810852e-05 9.019205e-05 9.019205e-05 4.810852e-05 4.810852e-05 9.019205e-05 9.019205e-05 4.810852e-05 2.566113e-05 4.810852e-05 4.810852e-05 2.566113e-05 5.619473e-07 1.053518e-06 1.053518e-06 5.619473e-07 1.067859e-06 2.001981e-06 2.001981e-06 1.067859e-06 1.086368e-06 2.036681e-06 2.036681e-06 1.086368e-06 5.869559e-07 1.100403e-06 1.100403e-06 5.869559e-07 2.647006e-05 4.962508e-05 4.962508e-05 2.647006e-05 4.962508e-05 9.303523e-05 9.303523e-05 4.962508e-05 4.962508e-05 9.303523e-05 9.303523e-05 4.962508e-05 2.647006e-05 4.962508e-05 4.962508e-05 2.647006e-05 5.723022e-08 1.072931e-07 1.072931e-07 5.723022e-08 1.075475e-07 2.016261e-07 2.016261e-07 1.075475e-07 1.078789e-07 2.022473e-07 2.022473e-07 1.078789e-07 5.767793e-08 1.081324e-07 1.081324e-07 5.767793e-08 1.437558e-05 2.695080e-05 2.695080e-05 1.437558e-05 2.695080e-05 5.052635e-05 5.052635e-05 2.695080e-05 2.695080e-05 5.052635e-05 5.052635e-05 2.695080e-05 1.437558e-05 2.695080e-05 2.695080e-05 1.437558e-05 1.292205e-05 2.422578e-05 2.422578e-05 1.292205e-05 2.422578e-05 4.541757e-05 4.541757e-05 2.422578e-05 2.422578e-05 4.541757e-05 4.541757e-05 2.422578e-05 1.292205e-05 2.422578e-05 2.422578e-05 1.292205e-05 2.422578e-05 4.541757e-05 4.541757e-05 2.422578e-05 4.541757e-05 8.514715e-05 8.514715e-05 4.541757e-05 4.541757e-05 8.514715e-05 8.514715e-05 4.541757e-05 2.422578e-05 4.541757e-05 4.541757e-05 2.422578e-05 2.422578e-05 4.541757e-05 4.541757e-05 2.422578e-05 4.541757e-05 8.514715e-05 8.514715e-05 4.541757e-05 4.541757e-05 8.514715e-05 8.514715e-05 4.541757e-05 2.422578e-05 4.541757e-05 4.541757e-05 2.422578e-05 1.292205e-05 2.422578e-05 2.422578e-05 1.292205e-05 2.422578e-05 4.541757e-05 4.541757e-05 2.422578e-05 2.422578e-05 4.541757e-05 4.541757e-05 2.422578e-05 1.292205e-05 2.422578e-05 2.422578e-05 1.292205e-05 2.735535e-05 5.128478e-05 5.128478e-05 2.735535e-05 5.128478e-05 9.614677e-05 9.614677e-05 5.128478e-05 5.128478e-05 9.614677e-05 9.614677e-05 5.128478e-05 2.735535e-05 5.128478e-05 5.128478e-05 2.735535e-05 5.128478e-05 9.614677e-05 9.614677e-05 5.128478e-05 9.614677e-05 1.802523e-04 1.802523e-04 9.614677e-05 9.614677e-05 1.802523e-04 1.802523e-04 9.614677e-05 5.128478e-05 9.614677e-05 9.614677e-05 5.128478e-05 5.128478e-05 9.614677e-05 9.614677e-05 5.128478e-05 9.614677e-05 1.802523e-04 1.802523e-04 9.614677e-05 9.614677e-05 1.802523e-04 1.802523e-04 9.614677e-05 5.128478e-05 9.614677e-05 9.614677e-05 5.128478e-05 2.735535e-05 5.128478e-05 5.128478e-05 2.735535e-05 5.128478e-05 9.614677e-05 9.614677e-05 5.128478e-05 5.128478e-05 9.614677e-05 9.614677e-05 5.128478e-05 2.735535e-05 5.128478e-05 5.128478e-05 2.735535e-05 2.229207e-11 4.179234e-11 4.179234e-11 2.229207e-11 1.984994e-10 3.721391e-10 3.721391e-10 1.984994e-10 4.026278e-10 7.548314e-10 7.548314e-10 4.026278e-10 2.980799e-10 5.588289e-10 5.588289e-10 2.980799e-10 7.060448e-10 1.323666e-09 1.323666e-09 7.060448e-10 6.273294e-09 1.176094e-08 1.176094e-08 6.273294e-09 1.268866e-08 2.378823e-08 2.378823e-08 1.268866e-08 9.373746e-09 1.757355e-08 1.757355e-08 9.373746e-09 1.844949e-09 3.458842e-09 3.458842e-09 1.844949e-09 1.636373e-08 3.067810e-08 3.067810e-08 1.636373e-08 3.302317e-08 6.191059e-08 6.191059e-08 3.302317e-08 2.435416e-08 4.565827e-08 4.565827e-08 2.435416e-08 1.227236e-09 2.300775e-09 2.300775e-09 1.227236e-09 1.087908e-08 2.039570e-08 2.039570e-08 1.087908e-08 2.193967e-08 4.113166e-08 4.113166e-08 2.193967e-08 1.617186e-08 3.031840e-08 3.031840e-08 1.617186e-08 1.136529e-10 2.130723e-10 2.130723e-10 1.136529e-10 9.996847e-10 1.874171e-09 1.874171e-09 9.996847e-10 1.995155e-09 3.740441e-09 3.740441e-09 1.995155e-09 1.458653e-09 2.734627e-09 2.734627e-09 1.458653e-09 4.592502e-09 8.609850e-09 8.609850e-09 4.592502e-09 3.916532e-08 7.342567e-08 7.342567e-08 3.916532e-08 7.495111e-08 1.405155e-07 1.405155e-07 7.495111e-08 5.298394e-08 9.933230e-08 9.933230e-08 5.298394e-08 1.771516e-08 3.321172e-08 3.321172e-08 1.771516e-08 1.475946e-07 2.767048e-07 2.767048e-07 1.475946e-07 2.735597e-07 5.128594e-07 5.128594e-07 2.735597e-07 1.883735e-07 3.531555e-07 3.531555e-07 1.883735e-07 1.736938e-08 3.256346e-08 3.256346e-08 1.736938e-08 1.428969e-07 2.678977e-07 2.678977e-07 1.428969e-07 2.603858e-07 4.881614e-07 4.881614e-07 2.603858e-07 1.768215e-07 3.314983e-07 3.314983e-07 1.768215e-07 7.161150e-06 1.342545e-05 1.342545e-05 7.161150e-06 1.592577e-05 2.985702e-05 2.985702e-05 1.592577e-05 1.858306e-05 3.483881e-05 3.483881e-05 1.858306e-05 1.076536e-05 2.018249e-05 2.018249e-05 1.076536e-05 4.571707e-05 8.570864e-05 8.570864e-05 4.571707e-05 8.935926e-05 1.675274e-04 1.675274e-04 8.935926e-05 9.327328e-05 1.748652e-04 1.748652e-04 9.327328e-05 5.101742e-05 9.564553e-05 9.564553e-05 5.101742e-05 6.744218e-05 1.264381e-04 1.264381e-04 6.744218e-05 1.296146e-04 2.429966e-04 2.429966e-04 1.296146e-04 1.330317e-04 2.494029e-04 2.494029e-04 1.330317e-04 7.206695e-05 1.351084e-04 1.351084e-04 7.206695e-05 3.922857e-05 7.354425e-05 7.354425e-05 3.922857e-05 7.517896e-05 1.409427e-04 1.409427e-04 7.517896e-05 7.693872e-05 1.442418e-04 1.442418e-0